# vtk DataFile Version 2.0
header : this data is results of BEM-BB
ASCII
DATASET UNSTRUCTURED_GRID
POINTS 304 float
 0.0000000000000  0.0000000000000 -0.7500000000000
-0.0386271240000 -0.0669041420000 -0.7377641300000
 0.0386271240000 -0.0669041420000 -0.7377641300000
-0.0772542490000  0.0000000000000 -0.7377641300000
 0.0772542490000  0.0000000000000 -0.7377641300000
-0.0386271240000  0.0669041420000 -0.7377641300000
 0.0386271240000  0.0669041420000 -0.7377641300000
 0.0000000000000 -0.1469463100000 -0.7022542500000
-0.0734731570000 -0.1272592400000 -0.7022542500000
 0.0734731570000 -0.1272592400000 -0.7022542500000
-0.1272592400000 -0.0734731570000 -0.7022542500000
 0.1272592400000 -0.0734731570000 -0.7022542500000
-0.1469463100000  0.0000000000000 -0.7022542500000
 0.1469463100000  0.0000000000000 -0.7022542500000
-0.1272592400000  0.0734731570000 -0.7022542500000
 0.1272592400000  0.0734731570000 -0.7022542500000
-0.0734731570000  0.1272592400000 -0.7022542500000
 0.0734731570000  0.1272592400000 -0.7022542500000
 0.0000000000000  0.1469463100000 -0.7022542500000
-0.0351210820000 -0.1991815500000 -0.6469463100000
 0.0351210820000 -0.1991815500000 -0.6469463100000
-0.1011271200000 -0.1751573200000 -0.6469463100000
 0.1011271200000 -0.1751573200000 -0.6469463100000
-0.1549357400000 -0.1300065300000 -0.6469463100000
 0.1549357400000 -0.1300065300000 -0.6469463100000
-0.1900568200000 -0.0691750270000 -0.6469463100000
 0.1900568200000 -0.0691750270000 -0.6469463100000
-0.2022542500000  0.0000000000000 -0.6469463100000
 0.2022542500000  0.0000000000000 -0.6469463100000
-0.1900568200000  0.0691750270000 -0.6469463100000
 0.1900568200000  0.0691750270000 -0.6469463100000
-0.1549357400000  0.1300065300000 -0.6469463100000
 0.1549357400000  0.1300065300000 -0.6469463100000
-0.1011271200000  0.1751573200000 -0.6469463100000
 0.1011271200000  0.1751573200000 -0.6469463100000
-0.0351210820000  0.1991815500000 -0.6469463100000
 0.0351210820000  0.1991815500000 -0.6469463100000
 0.0000000000000 -0.2377641300000 -0.5772542500000
-0.0615378850000 -0.2296625100000 -0.5772542500000
 0.0615378850000 -0.2296625100000 -0.5772542500000
-0.1188820600000 -0.2059097800000 -0.5772542500000
 0.1188820600000 -0.2059097800000 -0.5772542500000
-0.1681246300000 -0.1681246300000 -0.5772542500000
 0.1681246300000 -0.1681246300000 -0.5772542500000
-0.2059097800000 -0.1188820600000 -0.5772542500000
 0.2059097800000 -0.1188820600000 -0.5772542500000
-0.2296625100000 -0.0615378850000 -0.5772542500000
 0.2296625100000 -0.0615378850000 -0.5772542500000
-0.2377641300000  0.0000000000000 -0.5772542500000
 0.2377641300000  0.0000000000000 -0.5772542500000
-0.2296625100000  0.0615378850000 -0.5772542500000
 0.2296625100000  0.0615378850000 -0.5772542500000
-0.2059097800000  0.1188820600000 -0.5772542500000
 0.2059097800000  0.1188820600000 -0.5772542500000
-0.1681246300000  0.1681246300000 -0.5772542500000
 0.1681246300000  0.1681246300000 -0.5772542500000
-0.1188820600000  0.2059097800000 -0.5772542500000
 0.1188820600000  0.2059097800000 -0.5772542500000
-0.0615378850000  0.2296625100000 -0.5772542500000
 0.0615378850000  0.2296625100000 -0.5772542500000
 0.0000000000000  0.2377641300000 -0.5772542500000
-0.0261321160000 -0.2486304700000 -0.5000000000000
 0.0261321160000 -0.2486304700000 -0.5000000000000
-0.0772542490000 -0.2377641300000 -0.5000000000000
 0.0772542490000 -0.2377641300000 -0.5000000000000
-0.1250000000000 -0.2165063500000 -0.5000000000000
 0.1250000000000 -0.2165063500000 -0.5000000000000
-0.1672826500000 -0.1857862100000 -0.5000000000000
 0.1672826500000 -0.1857862100000 -0.5000000000000
-0.2022542500000 -0.1469463100000 -0.5000000000000
 0.2022542500000 -0.1469463100000 -0.5000000000000
-0.2283863600000 -0.1016841600000 -0.5000000000000
 0.2283863600000 -0.1016841600000 -0.5000000000000
-0.2445369000000 -0.0519779230000 -0.5000000000000
 0.2445369000000 -0.0519779230000 -0.5000000000000
-0.2500000000000  0.0000000000000 -0.5000000000000
 0.2500000000000  0.0000000000000 -0.5000000000000
-0.2445369000000  0.0519779230000 -0.5000000000000
 0.2445369000000  0.0519779230000 -0.5000000000000
-0.2283863600000  0.1016841600000 -0.5000000000000
 0.2283863600000  0.1016841600000 -0.5000000000000
-0.2022542500000  0.1469463100000 -0.5000000000000
 0.2022542500000  0.1469463100000 -0.5000000000000
-0.1672826500000  0.1857862100000 -0.5000000000000
 0.1672826500000  0.1857862100000 -0.5000000000000
-0.1250000000000  0.2165063500000 -0.5000000000000
 0.1250000000000  0.2165063500000 -0.5000000000000
-0.0772542490000  0.2377641300000 -0.5000000000000
 0.0772542490000  0.2377641300000 -0.5000000000000
-0.0261321160000  0.2486304700000 -0.5000000000000
 0.0261321160000  0.2486304700000 -0.5000000000000
 0.0000000000000 -0.2377641300000 -0.4227457500000
-0.0615378850000 -0.2296625100000 -0.4227457500000
 0.0615378850000 -0.2296625100000 -0.4227457500000
-0.1188820600000 -0.2059097800000 -0.4227457500000
 0.1188820600000 -0.2059097800000 -0.4227457500000
-0.1681246300000 -0.1681246300000 -0.4227457500000
 0.1681246300000 -0.1681246300000 -0.4227457500000
-0.2059097800000 -0.1188820600000 -0.4227457500000
 0.2059097800000 -0.1188820600000 -0.4227457500000
-0.2296625100000 -0.0615378850000 -0.4227457500000
 0.2296625100000 -0.0615378850000 -0.4227457500000
-0.2377641300000  0.0000000000000 -0.4227457500000
 0.2377641300000  0.0000000000000 -0.4227457500000
-0.2296625100000  0.0615378850000 -0.4227457500000
 0.2296625100000  0.0615378850000 -0.4227457500000
-0.2059097800000  0.1188820600000 -0.4227457500000
 0.2059097800000  0.1188820600000 -0.4227457500000
-0.1681246300000  0.1681246300000 -0.4227457500000
 0.1681246300000  0.1681246300000 -0.4227457500000
-0.1188820600000  0.2059097800000 -0.4227457500000
 0.1188820600000  0.2059097800000 -0.4227457500000
-0.0615378850000  0.2296625100000 -0.4227457500000
 0.0615378850000  0.2296625100000 -0.4227457500000
 0.0000000000000  0.2377641300000 -0.4227457500000
-0.0351210820000 -0.1991815500000 -0.3530536900000
 0.0351210820000 -0.1991815500000 -0.3530536900000
-0.1011271200000 -0.1751573200000 -0.3530536900000
 0.1011271200000 -0.1751573200000 -0.3530536900000
-0.1549357400000 -0.1300065300000 -0.3530536900000
 0.1549357400000 -0.1300065300000 -0.3530536900000
-0.1900568200000 -0.0691750270000 -0.3530536900000
 0.1900568200000 -0.0691750270000 -0.3530536900000
-0.2022542500000  0.0000000000000 -0.3530536900000
 0.2022542500000  0.0000000000000 -0.3530536900000
-0.1900568200000  0.0691750270000 -0.3530536900000
 0.1900568200000  0.0691750270000 -0.3530536900000
-0.1549357400000  0.1300065300000 -0.3530536900000
 0.1549357400000  0.1300065300000 -0.3530536900000
-0.1011271200000  0.1751573200000 -0.3530536900000
 0.1011271200000  0.1751573200000 -0.3530536900000
-0.0351210820000  0.1991815500000 -0.3530536900000
 0.0351210820000  0.1991815500000 -0.3530536900000
 0.0000000000000 -0.1469463100000 -0.2977457500000
-0.0734731570000 -0.1272592400000 -0.2977457500000
 0.0734731570000 -0.1272592400000 -0.2977457500000
-0.1272592400000 -0.0734731570000 -0.2977457500000
 0.1272592400000 -0.0734731570000 -0.2977457500000
-0.1469463100000  0.0000000000000 -0.2977457500000
 0.1469463100000  0.0000000000000 -0.2977457500000
-0.1272592400000  0.0734731570000 -0.2977457500000
 0.1272592400000  0.0734731570000 -0.2977457500000
-0.0734731570000  0.1272592400000 -0.2977457500000
 0.0734731570000  0.1272592400000 -0.2977457500000
 0.0000000000000  0.1469463100000 -0.2977457500000
-0.0386271240000 -0.0669041420000 -0.2622358700000
 0.0386271240000 -0.0669041420000 -0.2622358700000
-0.0772542490000  0.0000000000000 -0.2622358700000
 0.0772542490000  0.0000000000000 -0.2622358700000
-0.0386271240000  0.0669041420000 -0.2622358700000
 0.0386271240000  0.0669041420000 -0.2622358700000
 0.0000000000000  0.0000000000000 -0.2500000000000
 0.0000000000000  0.0000000000000  0.2500000000000
-0.0386271240000 -0.0669041420000  0.2622358700000
 0.0386271240000 -0.0669041420000  0.2622358700000
-0.0772542490000  0.0000000000000  0.2622358700000
 0.0772542490000  0.0000000000000  0.2622358700000
-0.0386271240000  0.0669041420000  0.2622358700000
 0.0386271240000  0.0669041420000  0.2622358700000
 0.0000000000000 -0.1469463100000  0.2977457500000
-0.0734731570000 -0.1272592400000  0.2977457500000
 0.0734731570000 -0.1272592400000  0.2977457500000
-0.1272592400000 -0.0734731570000  0.2977457500000
 0.1272592400000 -0.0734731570000  0.2977457500000
-0.1469463100000  0.0000000000000  0.2977457500000
 0.1469463100000  0.0000000000000  0.2977457500000
-0.1272592400000  0.0734731570000  0.2977457500000
 0.1272592400000  0.0734731570000  0.2977457500000
-0.0734731570000  0.1272592400000  0.2977457500000
 0.0734731570000  0.1272592400000  0.2977457500000
 0.0000000000000  0.1469463100000  0.2977457500000
-0.0351210820000 -0.1991815500000  0.3530536900000
 0.0351210820000 -0.1991815500000  0.3530536900000
-0.1011271200000 -0.1751573200000  0.3530536900000
 0.1011271200000 -0.1751573200000  0.3530536900000
-0.1549357400000 -0.1300065300000  0.3530536900000
 0.1549357400000 -0.1300065300000  0.3530536900000
-0.1900568200000 -0.0691750270000  0.3530536900000
 0.1900568200000 -0.0691750270000  0.3530536900000
-0.2022542500000  0.0000000000000  0.3530536900000
 0.2022542500000  0.0000000000000  0.3530536900000
-0.1900568200000  0.0691750270000  0.3530536900000
 0.1900568200000  0.0691750270000  0.3530536900000
-0.1549357400000  0.1300065300000  0.3530536900000
 0.1549357400000  0.1300065300000  0.3530536900000
-0.1011271200000  0.1751573200000  0.3530536900000
 0.1011271200000  0.1751573200000  0.3530536900000
-0.0351210820000  0.1991815500000  0.3530536900000
 0.0351210820000  0.1991815500000  0.3530536900000
 0.0000000000000 -0.2377641300000  0.4227457500000
-0.0615378850000 -0.2296625100000  0.4227457500000
 0.0615378850000 -0.2296625100000  0.4227457500000
-0.1188820600000 -0.2059097800000  0.4227457500000
[...]
 CELL_DATA          600
 SCALARS solve float 1
 LOOKUP_TABLE default
 -0.0000000000422085381433418422
 -0.0000000000422085380307843196
 -0.0000000000422085380307707810
 -0.0000000000422085380307706453
 -0.0000000000422085380307841968
 -0.0000000000422085381433420232
 -0.0000000000403262736574048987
 -0.0000000000403262740835082311
 -0.0000000000403262740835277991
 -0.0000000000403262740835280834
 -0.0000000000403262740835080566
 -0.0000000000403262736574052541
 -0.0000000000420667834699124598
 -0.0000000000420667834699062882
 -0.0000000000420667839556828565
 -0.0000000000420667839556748884
 -0.0000000000420667838584463732
 -0.0000000000420667838584293901
 -0.0000000000420667838584297972
 -0.0000000000420667838584467609
 -0.0000000000420667839556743585
 -0.0000000000420667839556829276
 -0.0000000000420667834699062818
 -0.0000000000420667834699122271
 -0.0000000000414004637223682756
 -0.0000000000414004637223945451
 -0.0000000000414004652745510139
 -0.0000000000414004652745516278
 -0.0000000000414004631762175780
 -0.0000000000414004631762177978
 -0.0000000000414004631762181209
 -0.0000000000414004631762175910
 -0.0000000000414004652745519703
 -0.0000000000414004652745510527
 -0.0000000000414004637223944223
 -0.0000000000414004637223686634
 -0.0000000000432461458323599751
 -0.0000000000424462663395547164
 -0.0000000000424462663395465738
 -0.0000000000424462665001298862
 -0.0000000000424462665001330527
 -0.0000000000432461465207712947
 -0.0000000000432461465207662023
 -0.0000000000424462654303678444
 -0.0000000000424462654303789661
 -0.0000000000424462654303783845
 -0.0000000000424462654303677863
 -0.0000000000432461465207656530
 -0.0000000000432461465207714304
 -0.0000000000424462665001331044
 -0.0000000000424462665001299120
 -0.0000000000424462663395469616
 -0.0000000000424462663395542317
 -0.0000000000432461458323597295
 -0.0000000000425664631799040042
 -0.0000000000424614837970598623
 -0.0000000000424614837970587379
 -0.0000000000424614855902749467
 -0.0000000000424614855902773184
 -0.0000000000425664620090764278
 -0.0000000000425664620090769836
 -0.0000000000424614833525398060
 -0.0000000000424614833525460745
 -0.0000000000424614833525461585
 -0.0000000000424614833525399353
 -0.0000000000425664620090767315
 -0.0000000000425664620090766346
 -0.0000000000424614855902770922
 -0.0000000000424614855902752892
 -0.0000000000424614837970587508
 -0.0000000000424614837970602436
 -0.0000000000425664631799038621
 -0.0000000000441427590234369205
 -0.0000000000441427590234268069
 -0.0000000000435107221952215556
 -0.0000000000435107221952176071
 -0.0000000000435107227840437803
 -0.0000000000435107227840427269
 -0.0000000000441427610579358139
 -0.0000000000441427610579453006
 -0.0000000000441427584698535528
 -0.0000000000441427584698304693
 -0.0000000000435107235656479819
 -0.0000000000435107235656530225
 -0.0000000000435107235656530548
 -0.0000000000435107235656484019
 -0.0000000000441427584698308570
 -0.0000000000441427584698531909
 -0.0000000000441427610579453588
 -0.0000000000441427610579359238
 -0.0000000000435107227840425460
 -0.0000000000435107227840436446
 -0.0000000000435107221952176394
 -0.0000000000435107221952216461
 -0.0000000000441427590234266712
 -0.0000000000441427590234371855
 -0.0000000000441322919731624533
 -0.0000000000441322919731639202
 -0.0000000000440278756741321756
 -0.0000000000440278756741212413
 -0.0000000000440278762793682874
 -0.0000000000440278762793674925
 -0.0000000000441322941547949866
 -0.0000000000441322941548071423
 -0.0000000000441322918847262928
 -0.0000000000441322918847261765
 -0.0000000000440278748661070304
 -0.0000000000440278748661044002
 -0.0000000000440278748661044196
 -0.0000000000440278748661067525
 -0.0000000000441322918847264479
 -0.0000000000441322918847256207
 -0.0000000000441322941548072134
 -0.0000000000441322941547953485
 -0.0000000000440278762793676347
 -0.0000000000440278762793685653
 -0.0000000000440278756741217647
 -0.0000000000440278756741319559
 -0.0000000000441322919731638750
 -0.0000000000441322919731623822
 -0.0000000000458774659226863476
 -0.0000000000458417073345978762
 -0.0000000000458417073345929132
 -0.0000000000453549939798482238
 -0.0000000000453549939798643021
 -0.0000000000453549928548019988
 -0.0000000000453549928548001117
 -0.0000000000458417096179219132
 -0.0000000000458417096179204268
 -0.0000000000458774659396082981
 -0.0000000000458774659396023721
 -0.0000000000458417064193469884
 -0.0000000000458417064193457864
 -0.0000000000453549945347461689
 -0.0000000000453549945347495810
 -0.0000000000453549945347492708
 -0.0000000000453549945347461301
 -0.0000000000458417064193461354
 -0.0000000000458417064193474990
 -0.0000000000458774659396021071
 -0.0000000000458774659396090089
 -0.0000000000458417096179203687
 -0.0000000000458417096179210666
 -0.0000000000453549928548008549
 -0.0000000000453549928548022185
 -0.0000000000453549939798638368
 -0.0000000000453549939798482496
 -0.0000000000458417073345929196
 -0.0000000000458417073345978827
 -0.0000000000458774659226864316
 -0.0000000000471690828355746059
 -0.0000000000471235758368953934
 -0.0000000000471235758368916582
 -0.0000000000468437933333507451
 -0.0000000000468437933333433263
 -0.0000000000468437921071047365
 -0.0000000000468437921071060161
 -0.0000000000471235782506320730
 -0.0000000000471235782506285381
 -0.0000000000471690827812857988
 -0.0000000000471690827812861413
 -0.0000000000471235749058295943
 -0.0000000000471235749058226795
 -0.0000000000468437939113525233
 -0.0000000000468437939113566721
 -0.0000000000468437939113568143
 -0.0000000000468437939113526461
 -0.0000000000471235749058223758
 -0.0000000000471235749058288963
 -0.0000000000471690827812863416
 -0.0000000000471690827812859151
 -0.0000000000471235782506282344
 -0.0000000000471235782506323962
 -0.0000000000468437921071064749
 -0.0000000000468437921071048593
 -0.0000000000468437933333427253
 -0.0000000000468437933333509454
 -0.0000000000471235758368918521
 -0.0000000000471235758368958199
 -0.0000000000471690828355744120
 -0.0000000000473249808614577915
 -0.0000000000473249808614647514
 -0.0000000000472695590865004539
 -0.0000000000472695590865020953
 -0.0000000000472695595819495035
 -0.0000000000472695595819511967
 -0.0000000000473249831205565711
 -0.0000000000473249831205561575
 -0.0000000000473249808262465222
 -0.0000000000473249808262497857
 -0.0000000000472695581568467619
 -0.0000000000472695581568520933
 -0.0000000000472695581568520028
 -0.0000000000472695581568470268
 -0.0000000000473249808262498439
 -0.0000000000473249808262470651
 -0.0000000000473249831205556276
 -0.0000000000473249831205562932
 -0.0000000000472695595819507895
 -0.0000000000472695595819494324
 -0.0000000000472695590865022698
 -0.0000000000472695590865004345
 -0.0000000000473249808614645446
 -0.0000000000473249808614581016
 -0.0000000000502562286808507368
 -0.0000000000502562286808543169
 -0.0000000000498003889689618346
 -0.0000000000498003889689498017
 -0.0000000000498003896467801694
 -0.0000000000498003896467896949
 -0.0000000000502562310205294321
 -0.0000000000502562310205267825
 -0.0000000000502562280096816416
 -0.0000000000502562280096880588
 -0.0000000000498003905628149401
 -0.0000000000498003905628164781
 -0.0000000000498003905628166203
 -0.0000000000498003905628150952
 -0.0000000000502562280096883431
 -0.0000000000502562280096813056
 -0.0000000000502562310205264077
 -0.0000000000502562310205298586
 -0.0000000000498003896467901860
 -0.0000000000498003896467801306
 -0.0000000000498003889689500602
 -0.0000000000498003889689615955
 -0.0000000000502562286808544009
 -0.0000000000502562286808502650
 -0.0000000000504833429153930336
 -0.0000000000504138831942779420
 -0.0000000000504138831942786464
 -0.0000000000504138852428944820
 -0.0000000000504138852428878840
 -0.0000000000504833415506092909
 -0.0000000000504833415506110616
 -0.0000000000504138826662356627
 -0.0000000000504138826662295494
 -0.0000000000504138826662294718
 -0.0000000000504138826662358954
 -0.0000000000504833415506108548
 -0.0000000000504833415506095430
 -0.0000000000504138852428880520
 -0.0000000000504138852428947664
 -0.0000000000504138831942780196
 -0.0000000000504138831942781101
 -0.0000000000504833429153934084
 -0.0000000000546154831389014589
 -0.0000000000538863364533567999
 -0.0000000000538863364533545639
 -0.0000000000538863366709939967
 -0.0000000000538863366709993152
 -0.0000000000546154839848695726
 -0.0000000000546154839848692301
 -0.0000000000538863354085503254
 -0.0000000000538863354085368773
 -0.0000000000538863354085371810
 -0.0000000000538863354085501380
 -0.0000000000546154839848692624
 -0.0000000000546154839848695145
 -0.0000000000538863366710000713
 -0.0000000000538863366709940484
 -0.0000000000538863364533544799
 -0.0000000000538863364533571488
 -0.0000000000546154831389010711
 -0.0000000000544133107573749510
 -0.0000000000544133107573706019
 -0.0000000000544133126839170422
 -0.0000000000544133126839164800
 -0.0000000000544133100331836626
 -0.0000000000544133100331847095
 -0.0000000000544133100331844510
 -0.0000000000544133100331836045
 -0.0000000000544133126839163830
 -0.0000000000544133126839168871
 -0.0000000000544133107573705566
 -0.0000000000544133107573750674
 -0.0000000000587323309291609327
 -0.0000000000587323309291642414
 -0.0000000000587323315443196446
 -0.0000000000587323315443187270
 -0.0000000000587323314226110939
 -0.0000000000587323314226165869
 -0.0000000000587323314226167291
 -0.0000000000587323314226111715
 -0.0000000000587323315443187140
 -0.0000000000587323315443196834
 -0.0000000000587323309291641251
 -0.0000000000587323309291606613
 -0.0000000000579555597335544573
 -0.0000000000579555602971090285
 -0.0000000000579555602971055323
 -0.0000000000579555602971048861
 -0.0000000000579555602971088087
 -0.0000000000579555597335546059
 -0.0000000000628882956985345692
 -0.0000000000628882955410113857
 -0.0000000000628882955410177188
 -0.0000000000628882955410178998
 -0.0000000000628882955410118898
 -0.0000000000628882956985346209
  0.0000000000628882953762446074
  0.0000000000628882952187277958
  0.0000000000628882952187241898
  0.0000000000628882952187236340
  0.0000000000628882952187273046
  0.0000000000628882953762449693
  0.0000000000579555594132103086
  0.0000000000579555599767622237
  0.0000000000579555599767592898
  0.0000000000579555599767595031
  0.0000000000579555599767625598
  0.0000000000579555594132101083
  0.0000000000587323306109775349
  0.0000000000587323306109738126
  0.0000000000587323312261282593
  0.0000000000587323312261348251
  0.0000000000587323311044193855
  0.0000000000587323311044362652
  0.0000000000587323311044361359
  0.0000000000587323311044193209
  0.0000000000587323312261346829
  0.0000000000587323312261282723
  0.0000000000587323306109742649
  0.0000000000587323306109774832
  0.0000000000544133104432716927
  0.0000000000544133104432752276
  0.0000000000544133123698278588
  0.0000000000544133123698291642
  0.0000000000544133097190846694
  0.0000000000544133097190812379
  0.0000000000544133097190811474
  0.0000000000544133097190843140
  0.0000000000544133123698293516
  0.0000000000544133123698278265
  0.0000000000544133104432751242
  0.0000000000544133104432715053
  0.0000000000546154828275119022
  0.0000000000538863361417933931
  0.0000000000538863361417820064
  0.0000000000538863363594225960
  0.0000000000538863363594300923
  0.0000000000546154836734799578
  0.0000000000546154836734801582
  0.0000000000538863350969846762
  0.0000000000538863350969707951
  0.0000000000538863350969708274
  0.0000000000538863350969845858
  0.0000000000546154836734799320
  0.0000000000546154836734802551
  0.0000000000538863363594298015
  0.0000000000538863363594224926
  0.0000000000538863361417821098
  0.0000000000538863361417934965
  0.0000000000546154828275120185
  0.0000000000504833426086540156
  0.0000000000504138828874648978
  0.0000000000504138828874627265
  0.0000000000504138849360816899
  0.0000000000504138849360722225
  0.0000000000504833412438645538
  0.0000000000504833412438626538
  0.0000000000504138823594186959
  0.0000000000504138823594128410
  0.0000000000504138823594125696
  0.0000000000504138823594189544
  0.0000000000504833412438628606
  0.0000000000504833412438646055
  0.0000000000504138849360723712
  0.0000000000504138849360815283
  0.0000000000504138828874628880
  0.0000000000504138828874647363
  0.0000000000504833426086539381
  0.0000000000502562283766923413
  0.0000000000502562283766946678
  0.0000000000498003886646673744
  0.0000000000498003886646608797
  0.0000000000498003893424808947
  0.0000000000498003893424938711
  0.0000000000502562307163773051
  0.0000000000502562307163758382
  0.0000000000502562277055341870
  0.0000000000502562277055364488
  0.0000000000498003902585154134
  0.0000000000498003902585282153
  0.0000000000498003902585281184
  0.0000000000498003902585148706
  0.0000000000502562277055364100
  0.0000000000502562277055345876
  0.0000000000502562307163758963
  0.0000000000502562307163774796
  0.0000000000498003893424939228
  0.0000000000498003893424808818
  0.0000000000498003886646607053
  0.0000000000498003886646674649
  0.0000000000502562283766947066
  0.0000000000502562283766927872
  0.0000000000473249805617849703
  0.0000000000473249805617855584
  0.0000000000472695587867601012
  0.0000000000472695587867654908
  0.0000000000472695592822120524
  0.0000000000472695592822100879
  0.0000000000473249828208771002
  0.0000000000473249828208751033
  0.0000000000473249805265718658
  0.0000000000473249805265753748
  0.0000000000472695578571119409
  0.0000000000472695578571145970
  0.0000000000472695578571144612
  0.0000000000472695578571115532
  0.0000000000473249805265754976
  0.0000000000473249805265720661
  0.0000000000473249828208748383
  0.0000000000473249828208772036
  0.0000000000472695592822099069
  0.0000000000472695592822120524
  0.0000000000472695587867655037
  0.0000000000472695587867599202
  0.0000000000473249805617855454
  0.0000000000473249805617848604
  0.0000000000471690825382226273
  0.0000000000471235755394979199
  0.0000000000471235755394947082
  0.0000000000468437930358605111
  0.0000000000468437930358557742
  0.0000000000468437918096163572
  0.0000000000468437918096181667
  0.0000000000471235779532375981
  0.0000000000471235779532426904
  0.0000000000471690824839274613
  0.0000000000471690824839279072
  0.0000000000471235746084375815
  0.0000000000471235746084286828
  0.0000000000468437936138519753
  0.0000000000468437936138651133
  0.0000000000468437936138652555
  0.0000000000468437936138522726
  0.0000000000471235746084288961
  0.0000000000471235746084379757
  0.0000000000471690824839281334
  0.0000000000471690824839271317
  0.0000000000471235779532427809
  0.0000000000471235779532374882
  0.0000000000468437918096183476
  0.0000000000468437918096160147
  0.0000000000468437930358555803
  0.0000000000468437930358605757
  0.0000000000471235755394949537
  0.0000000000471235755394983206
  0.0000000000471690825382224658
  0.0000000000458774656292142533
  0.0000000000458417070410872857
  0.0000000000458417070410848558
  0.0000000000453549936862352890
  0.0000000000453549936862496160
  0.0000000000453549925611798939
  0.0000000000453549925611807599
  0.0000000000458417093244179207
  0.0000000000458417093244044402
  0.0000000000458774656461284037
  0.0000000000458774656461289917
  0.0000000000458417061258359132
  0.0000000000458417061258374836
  0.0000000000453549942411454027
  0.0000000000453549942411238702
  0.0000000000453549942411239154
  0.0000000000453549942411458680
  0.0000000000458417061258372703
  0.0000000000458417061258359132
  0.0000000000458774656461289788
  0.0000000000458774656461282680
  0.0000000000458417093244041688
  0.0000000000458417093244177204
  0.0000000000453549925611805143
  0.0000000000453549925611799779
  0.0000000000453549936862497453
  0.0000000000453549936862353795
  0.0000000000458417070410845780
  0.0000000000458417070410876734
  0.0000000000458774656292140982
  0.0000000000441322916812642510
  0.0000000000441322916812612396
  0.0000000000440278753821564639
  0.0000000000440278753821367150
  0.0000000000440278759873945273
  0.0000000000440278759873932865
  0.0000000000441322938628926872
  0.0000000000441322938629070789
  0.0000000000441322915928271470
  0.0000000000441322915928235604
  0.0000000000440278745741307177
  0.0000000000440278745741338519
  0.0000000000440278745741340006
  0.0000000000440278745741302330
  0.0000000000441322915928232825
  0.0000000000441322915928275089
  0.0000000000441322938629070595
  0.0000000000441322938628929780
  0.0000000000440278759873935644
  0.0000000000440278759873946889
  0.0000000000440278753821367408
  0.0000000000440278753821562248
  0.0000000000441322916812615756
  0.0000000000441322916812637922
  0.0000000000441427587346827542
  0.0000000000441427587346767054
  0.0000000000435107219063105351
  0.0000000000435107219062993553
  0.0000000000435107224951344659
  0.0000000000435107224951349183
  0.0000000000441427607691821193
  0.0000000000441427607691915156
  0.0000000000441427581810971505
  0.0000000000441427581810776471
  0.0000000000435107232767362893
  0.0000000000435107232767379437
  0.0000000000435107232767379437
  0.0000000000435107232767362183
  0.0000000000441427581810781770
  0.0000000000441427581810976158
  0.0000000000441427607691923428
  0.0000000000441427607691819836
  0.0000000000435107224951344918
  0.0000000000435107224951347309
  0.0000000000435107219062995039
  0.0000000000435107219063105416
  0.0000000000441427587346767571
  0.0000000000441427587346832324
  0.0000000000425664628923071670
  0.0000000000424614835093834154
  0.0000000000424614835093869891
  0.0000000000424614853025977631
  0.0000000000424614853026032109
  0.0000000000425664617214781688
  0.0000000000425664617214798878
  0.0000000000424614830648716374
  0.0000000000424614830648720962
  0.0000000000424614830648717020
  0.0000000000424614830648715275
  0.0000000000425664617214794807
  0.0000000000425664617214779620
  0.0000000000424614853026032626
  0.0000000000424614853025975757
  0.0000000000424614835093868469
  0.0000000000424614835093833573
  0.0000000000425664628923071735
  0.0000000000432461455471837979
  0.0000000000424462660541987050
  0.0000000000424462660541915124
  0.0000000000424462662147795616
  0.0000000000424462662147823146
  0.0000000000432461462355985619
  0.0000000000432461462355828390
  0.0000000000424462651450143275
  0.0000000000424462651450253199
  0.0000000000424462651450252747
  0.0000000000424462651450137006
  0.0000000000432461462355829682
  0.0000000000432461462355982840
  0.0000000000424462662147820173
  0.0000000000424462662147798201
  0.0000000000424462660541915641
  0.0000000000424462660541989764
  0.0000000000432461455471833391
  0.0000000000414004634378295574
  0.0000000000414004634378537330
  0.0000000000414004649900066282
  0.0000000000414004649900123538
  0.0000000000414004628916801588
  0.0000000000414004628916810893
  0.0000000000414004628916808955
  0.0000000000414004628916806176
  0.0000000000414004649900122634
  0.0000000000414004649900069836
  0.0000000000414004634378540691
  0.0000000000414004634378292278
  0.0000000000420667831870231009
  0.0000000000420667831870200507
  0.0000000000420667836727966513
  0.0000000000420667836727916106
  0.0000000000420667835755562453
  0.0000000000420667835755408261
  0.0000000000420667835755409554
  0.0000000000420667835755565490
  0.0000000000420667836727916429
  0.0000000000420667836727963799
  0.0000000000420667831870200765
  0.0000000000420667831870232431
  0.0000000000403262733748017379
  0.0000000000403262738009072157
  0.0000000000403262738009250001
  0.0000000000403262738009250066
  0.0000000000403262738009071705
  0.0000000000403262733748017379
  0.0000000000422085378620378720
  0.0000000000422085377494804463
  0.0000000000422085377494728142
  0.0000000000422085377494730340
  0.0000000000422085377494804463
  0.0000000000422085378620378332
